 Gaussian 16, Revision B.01,
 Gaussian 16:  EM64W-G16RevB.01 16-Dec-2017

 --------------------------------------------
 # Opt B3LYP/6-31G* EmpiricalDispersion=GD3BJ
 --------------------------------------------

 -------------------
 Title Card Required
 -------------------
 Symbolic Z-matrix:
 Charge =  0 Multiplicity = 1

 SCF Done:  E(RB3LYP) =  -117.910692405     A.U. after   12 cycles
 SCF Done:  E(RB3LYP) =  -117.915278038     A.U. after   11 cycles
 SCF Done:  E(RB3LYP) =  -117.915588858     A.U. after   10 cycles
 SCF Done:  E(RB3LYP) =  -117.915592820     A.U. after    8 cycles
 Optimization completed.
    -- Stationary point found.

                         Standard orientation:
 ---------------------------------------------------------------------
 Center     Atomic      Atomic             Coordinates (Angstroms)
 Number     Number       Type             X           Y           Z
 ---------------------------------------------------------------------
      1          6           0        1.291859    0.148117    0.000000
      2          1           0        1.614954   -0.891217    0.000000
      3          1           0        2.075299    0.901075    0.000000
      4          6           0        0.000000    0.476125    0.000000
      5          1           0       -0.277386    1.531280    0.000000
      6          6           0       -1.138019   -0.503030    0.000000
      7          1           0       -0.776316   -1.536816    0.000000
      8          1           0       -1.779796   -0.365796    0.880769
      9          1           0       -1.779796   -0.365796   -0.880769
 ---------------------------------------------------------------------

 The electronic state is 1-A'.
 Alpha  occ. eigenvalues --  -10.18702 -10.18039 -10.17294  -0.77983  -0.68029
 Alpha  occ. eigenvalues --   -0.55024  -0.46175  -0.41581  -0.40865  -0.36807
 Alpha  occ. eigenvalues --   -0.34236  -0.24983
 Alpha virt. eigenvalues --    0.02840   0.11386   0.13516   0.15062   0.17567
 Alpha virt. eigenvalues --    0.18051   0.19335   0.28687   0.37769   0.49924
 Alpha virt. eigenvalues --    0.52951   0.53532   0.60955   0.63558   0.65815

 Mulliken charges:
               1
     1  C   -0.332618
     2  H    0.132251
     3  H    0.136461
     4  C   -0.040798
     5  H    0.125310
     6  C   -0.484168
     7  H    0.152402
     8  H    0.155579
     9  H    0.155579
 Sum of Mulliken charges =   0.00000

 Dipole moment (field-independent basis, Debye):
    X=             -0.3536    Y=             -0.0134    Z=              0.0000  Tot=              0.3539
 Quadrupole moment (field-independent basis, Debye-Ang):
   XX=            -18.8368   YY=            -18.7953   ZZ=            -21.2913
   XY=             -0.1615   XZ=              0.0000   YZ=              0.0000

 Normal termination of Gaussian 16 at Fri Jul 15 13:40:35 2022.
